
5000 atoms
15 atom types
   0.0000000000   39.4960261847 xlo xhi
   0.0000000000   39.4285628497 ylo yhi
   0.0000000000   41.7060390902 zlo zhi
   0.0000000000    0.0000000000    0.0000000000 xy xz yz

Atoms # atomic

     1      2    0.0677153211   39.3901590084    0.4163716759
     2      2    7.9669205580   39.3901590084    0.4163716759
     3      2   15.8661257950   39.3901590084    0.4163716759
     4      2   23.7653310319   39.3901590084    0.4163716759
     5      2   31.6645362689   39.3901590084    0.4163716759
     6      2    0.0677153211    7.8473087286    0.4163716759
     7      2    7.9669205580    7.8473087286    0.4163716759
     8      2   15.8661257950    7.8473087286    0.4163716759
     9      2   23.7653310319    7.8473087286    0.4163716759
    10      2   31.6645362689    7.8473087286    0.4163716759
    11      2    0.0677153211   15.7330212986    0.4163716759
    12      2    7.9669205580   15.7330212986    0.4163716759
    13      2   15.8661257950   15.7330212986    0.4163716759
    14      2   23.7653310319   15.7330212986    0.4163716759
    15      2   31.6645362689   15.7330212986    0.4163716759
    16      2    0.0677153211   23.6187338685    0.4163716759
    17      2    7.9669205580   23.6187338685    0.4163716759
    18      2   15.8661257950   23.6187338685    0.4163716759
    19      2   23.7653310319   23.6187338685    0.4163716759
    20      2   31.6645362689   23.6187338685    0.4163716759
    21      2    0.0677153211   31.5044464384    0.4163716759
    22      2    7.9669205580   31.5044464384    0.4163716759
    23      2   15.8661257950   31.5044464384    0.4163716759
    24      2   23.7653310319   31.5044464384    0.4163716759
    25      2   31.6645362689   31.5044464384    0.4163716759
    26      2    0.0677153211   39.3901590084    8.7575794939
    27      2    7.9669205580   39.3901590084    8.7575794939
    28      2   15.8661257950   39.3901590084    8.7575794939
    29      2   23.7653310319   39.3901590084    8.7575794939
    30      2   31.6645362689   39.3901590084    8.7575794939
    31      2    0.0677153211    7.8473087286    8.7575794939
    32      2    7.9669205580    7.8473087286    8.7575794939
    33      2   15.8661257950    7.8473087286    8.7575794939
    34      2   23.7653310319    7.8473087286    8.7575794939
    35      2   31.6645362689    7.8473087286    8.7575794939
    36      2    0.0677153211   15.7330212986    8.7575794939
    37      2    7.9669205580   15.7330212986    8.7575794939
    38      2   15.8661257950   15.7330212986    8.7575794939
    39      2   23.7653310319   15.7330212986    8.7575794939
    40      2   31.6645362689   15.7330212986    8.7575794939
    41      2    0.0677153211   23.6187338685    8.7575794939
    42      2    7.9669205580   23.6187338685    8.7575794939
    43      2   15.8661257950   23.6187338685    8.7575794939
    44      2   23.7653310319   23.6187338685    8.7575794939
    45      2   31.6645362689   23.6187338685    8.7575794939
    46      2    0.0677153211   31.5044464384    8.7575794939
    47      2    7.9669205580   31.5044464384    8.7575794939
    48      2   15.8661257950   31.5044464384    8.7575794939
    49      2   23.7653310319   31.5044464384    8.7575794939
    50      2   31.6645362689   31.5044464384    8.7575794939
    51      2    0.0677153211   39.3901590084   17.0987873120
    52      2    7.9669205580   39.3901590084   17.0987873120
    53      2   15.8661257950   39.3901590084   17.0987873120
    54      2   23.7653310319   39.3901590084   17.0987873120
    55      2   31.6645362689   39.3901590084   17.0987873120
    56      2    0.0677153211    7.8473087286   17.0987873120
    57      2    7.9669205580    7.8473087286   17.0987873120
    58      2   15.8661257950    7.8473087286   17.0987873120
    59      2   23.7653310319    7.8473087286   17.0987873120
    60      2   31.6645362689    7.8473087286   17.0987873120
    61      2    0.0677153211   15.7330212986   17.0987873120
    62      2    7.9669205580   15.7330212986   17.0987873120
    63      2   15.8661257950   15.7330212986   17.0987873120
    64      2   23.7653310319   15.7330212986   17.0987873120
    65      2   31.6645362689   15.7330212986   17.0987873120
    66      2    0.0677153211   23.6187338685   17.0987873120
    67      2    7.9669205580   23.6187338685   17.0987873120
    68      2   15.8661257950   23.6187338685   17.0987873120
    69      2   23.7653310319   23.6187338685   17.0987873120
    70      2   31.6645362689   23.6187338685   17.0987873120
    71      2    0.0677153211   31.5044464384   17.0987873120
    72      2    7.9669205580   31.5044464384   17.0987873120
    73      2   15.8661257950   31.5044464384   17.0987873120
    74      2   23.7653310319   31.5044464384   17.0987873120
    75      2   31.6645362689   31.5044464384   17.0987873120
    76      2    0.0677153211   39.3901590084   25.4399951300
    77      2    7.9669205580   39.3901590084   25.4399951300
    78      2   15.8661257950   39.3901590084   25.4399951300
    79      2   23.7653310319   39.3901590084   25.4399951300
    80      2   31.6645362689   39.3901590084   25.4399951300
    81      2    0.0677153211    7.8473087286   25.4399951300
    82      2    7.9669205580    7.8473087286   25.4399951300
    83      2   15.8661257950    7.8473087286   25.4399951300
    84      2   23.7653310319    7.8473087286   25.4399951300
    85      2   31.6645362689    7.8473087286   25.4399951300
    86      2    0.0677153211   15.7330212986   25.4399951300
    87      2    7.9669205580   15.7330212986   25.4399951300
    88      2   15.8661257950   15.7330212986   25.4399951300
    89      2   23.7653310319   15.7330212986   25.4399951300
    90      2   31.6645362689   15.7330212986   25.4399951300
    91      2    0.0677153211   23.6187338685   25.4399951300
    92      2    7.9669205580   23.6187338685   25.4399951300
    93      2   15.8661257950   23.6187338685   25.4399951300
    94      2   23.7653310319   23.6187338685   25.4399951300
    95      2   31.6645362689   23.6187338685   25.4399951300
    96      2    0.0677153211   31.5044464384   25.4399951300
    97      2    7.9669205580   31.5044464384   25.4399951300
    98      2   15.8661257950   31.5044464384   25.4399951300
    99      2   23.7653310319   31.5044464384   25.4399951300
   100      2   31.6645362689   31.5044464384   25.4399951300
   101      2    0.0677153211   39.3901590084   33.7812029480
   102      2    7.9669205580   39.3901590084   33.7812029480
   103      2   15.8661257950   39.3901590084   33.7812029480
   104      2   23.7653310319   39.3901590084   33.7812029480
   105      2   31.6645362689   39.3901590084   33.7812029480
   106      2    0.0677153211    7.8473087286   33.7812029480
   107      2    7.9669205580    7.8473087286   33.7812029480
   108      2   15.8661257950    7.8473087286   33.7812029480
   109      2   23.7653310319    7.8473087286   33.7812029480
   110      2   31.6645362689    7.8473087286   33.7812029480
   111      2    0.0677153211   15.7330212986   33.7812029480
   112      2    7.9669205580   15.7330212986   33.7812029480
   113      2   15.8661257950   15.7330212986   33.7812029480
   114      2   23.7653310319   15.7330212986   33.7812029480
   115      2   31.6645362689   15.7330212986   33.7812029480
   116      2    0.0677153211   23.6187338685   33.7812029480
   117      2    7.9669205580   23.6187338685   33.7812029480
   118      2   15.8661257950   23.6187338685   33.7812029480
   119      2   23.7653310319   23.6187338685   33.7812029480
   120      2   31.6645362689   23.6187338685   33.7812029480
   121      2    0.0677153211   31.5044464384   33.7812029480
   122      2    7.9669205580   31.5044464384   33.7812029480
   123      2   15.8661257950   31.5044464384   33.7812029480
   124      2   23.7653310319   31.5044464384   33.7812029480
   125      2   31.6645362689   31.5044464384   33.7812029480
   126      2   39.4283108636   39.3901590084    4.5869755849
   127      2    7.8314899158   39.3901590084    4.5869755849
   128      2   15.7306951528   39.3901590084    4.5869755849
   129      2   23.6299003897   39.3901590084    4.5869755849
   130      2   31.5291056267   39.3901590084    4.5869755849
   131      2   39.4283108636    7.8473087286    4.5869755849
   132      2    7.8314899158    7.8473087286    4.5869755849
   133      2   15.7306951528    7.8473087286    4.5869755849
   134      2   23.6299003897    7.8473087286    4.5869755849
   135      2   31.5291056267    7.8473087286    4.5869755849
   136      2   39.4283108636   15.7330212986    4.5869755849
   137      2    7.8314899158   15.7330212986    4.5869755849
   138      2   15.7306951528   15.7330212986    4.5869755849
   139      2   23.6299003897   15.7330212986    4.5869755849
   140      2   31.5291056267   15.7330212986    4.5869755849
   141      2   39.4283108636   23.6187338685    4.5869755849
   142      2    7.8314899158   23.6187338685    4.5869755849
   143      2   15.7306951528   23.6187338685    4.5869755849
   144      2   23.6299003897   23.6187338685    4.5869755849
   145      2   31.5291056267   23.6187338685    4.5869755849
   146      2   39.4283108636   31.5044464384    4.5869755849
   147      2    7.8314899158   31.5044464384    4.5869755849
   148      2   15.7306951528   31.5044464384    4.5869755849
   149      2   23.6299003897   31.5044464384    4.5869755849
   150      2   31.5291056267   31.5044464384    4.5869755849
   151      2   39.4283108636   39.3901590084   12.9281834029
   152      2    7.8314899158   39.3901590084   12.9281834029
   153      2   15.7306951528   39.3901590084   12.9281834029
   154      2   23.6299003897   39.3901590084   12.9281834029
   155      2   31.5291056267   39.3901590084   12.9281834029
   156      2   39.4283108636    7.8473087286   12.9281834029
   157      2    7.8314899158    7.8473087286   12.9281834029
   158      2   15.7306951528    7.8473087286   12.9281834029
   159      2   23.6299003897    7.8473087286   12.9281834029
   160      2   31.5291056267    7.8473087286   12.9281834029
   161      2   39.4283108636   15.7330212986   12.9281834029
   162      2    7.8314899158   15.7330212986   12.9281834029
   163      2   15.7306951528   15.7330212986   12.9281834029
   164      2   23.6299003897   15.7330212986   12.9281834029
   165      2   31.5291056267   15.7330212986   12.9281834029
   166      2   39.4283108636   23.6187338685   12.9281834029
   167      2    7.8314899158   23.6187338685   12.9281834029
   168      2   15.7306951528   23.6187338685   12.9281834029
   169      2   23.6299003897   23.6187338685   12.9281834029
   170      2   31.5291056267   23.6187338685   12.9281834029
   171      2   39.4283108636   31.5044464384   12.9281834029
   172      2    7.8314899158   31.5044464384   12.9281834029
   173      2   15.7306951528   31.5044464384   12.9281834029
   174      2   23.6299003897   31.5044464384   12.9281834029
   175      2   31.5291056267   31.5044464384   12.9281834029
   176      2   39.4283108636   39.3901590084   21.2693912210
   177      2    7.8314899158   39.3901590084   21.2693912210
   178      2   15.7306951528   39.3901590084   21.2693912210
   179      2   23.6299003897   39.3901590084   21.2693912210
   180      2   31.5291056267   39.3901590084   21.2693912210
   181      2   39.4283108636    7.8473087286   21.2693912210
   182      2    7.8314899158    7.8473087286   21.2693912210
   183      2   15.7306951528    7.8473087286   21.2693912210
   184      2   23.6299003897    7.8473087286   21.2693912210
   185      2   31.5291056267    7.8473087286   21.2693912210
   186      2   39.4283108636   15.7330212986   21.2693912210
   187      2    7.8314899158   15.7330212986   21.2693912210
   188      2   15.7306951528   15.7330212986   21.2693912210
   189      2   23.6299003897   15.7330212986   21.2693912210
   190      2   31.5291056267   15.7330212986   21.2693912210
   191      2   39.4283108636   23.6187338685   21.2693912210
   192      2    7.8314899158   23.6187338685   21.2693912210
   193      2   15.7306951528   23.6187338685   21.2693912210
   194      2   23.6299003897   23.6187338685   21.2693912210
   195      2   31.5291056267   23.6187338685   21.2693912210
   196      2   39.4283108636   31.5044464384   21.2693912210
   197      2    7.8314899158   31.5044464384   21.2693912210
   198      2   15.7306951528   31.5044464384   21.2693912210
   199      2   23.6299003897   31.5044464384   21.2693912210
   200      2   31.5291056267   31.5044464384   21.2693912210
   201      2   39.4283108636   39.3901590084   29.6105990390
   202      2    7.8314899158   39.3901590084   29.6105990390
   203      2   15.7306951528   39.3901590084   29.6105990390
   204      2   23.6299003897   39.3901590084   29.6105990390
   205      2   31.5291056267   39.3901590084   29.6105990390
   206      2   39.4283108636    7.8473087286   29.6105990390
   207      2    7.8314899158    7.8473087286   29.6105990390
   208      2   15.7306951528    7.8473087286   29.6105990390
   209      2   23.6299003897    7.8473087286   29.6105990390
   210      2   31.5291056267    7.8473087286   29.6105990390
   211      2   39.4283108636   15.7330212986   29.6105990390
   212      2    7.8314899158   15.7330212986   29.6105990390
   213      2   15.7306951528   15.7330212986   29.6105990390
   214      2   23.6299003897   15.7330212986   29.6105990390
   215      2   31.5291056267   15.7330212986   29.6105990390
   216      2   39.4283108636   23.6187338685   29.6105990390
   217      2    7.8314899158   23.6187338685   29.6105990390
   218      2   15.7306951528   23.6187338685   29.6105990390
   219      2   23.6299003897   23.6187338685   29.6105990390
   220      2   31.5291056267   23.6187338685   29.6105990390
   221      2   39.4283108636   31.5044464384   29.6105990390
   222      2    7.8314899158   31.5044464384   29.6105990390
   223      2   15.7306951528   31.5044464384   29.6105990390
   224      2   23.6299003897   31.5044464384   29.6105990390
   225      2   31.5291056267   31.5044464384   29.6105990390
   226      2   39.4283108636   39.3901590084   37.9518068571
   227      2    7.8314899158   39.3901590084   37.9518068571
   228      2   15.7306951528   39.3901590084   37.9518068571
   229      2   23.6299003897   39.3901590084   37.9518068571
   230      2   31.5291056267   39.3901590084   37.9518068571
   231      2   39.4283108636    7.8473087286   37.9518068571
   232      2    7.8314899158    7.8473087286   37.9518068571
   233      2   15.7306951528    7.8473087286   37.9518068571
   234      2   23.6299003897    7.8473087286   37.9518068571
   235      2   31.5291056267    7.8473087286   37.9518068571
   236      2   39.4283108636   15.7330212986   37.9518068571
   237      2    7.8314899158   15.7330212986   37.9518068571
   238      2   15.7306951528   15.7330212986   37.9518068571
   239      2   23.6299003897   15.7330212986   37.9518068571
   240      2   31.5291056267   15.7330212986   37.9518068571
   241      2   39.4283108636   23.6187338685   37.9518068571
   242      2    7.8314899158   23.6187338685   37.9518068571
   243      2   15.7306951528   23.6187338685   37.9518068571
   244      2   23.6299003897   23.6187338685   37.9518068571
   245      2   31.5291056267   23.6187338685   37.9518068571
   246      2   39.4283108636   31.5044464384   37.9518068571
   247      2    7.8314899158   31.5044464384   37.9518068571
   248      2   15.7306951528   31.5044464384   37.9518068571
   249      2   23.6299003897   31.5044464384   37.9518068571
   250      2   31.5291056267   31.5044464384   37.9518068571
   251      2    0.0677153211    3.9812601263    0.4163716759
   252      2    7.9669205580    3.9812601263    0.4163716759
   253      2   15.8661257950    3.9812601263    0.4163716759
   254      2   23.7653310319    3.9812601263    0.4163716759
   255      2   31.6645362689    3.9812601263    0.4163716759
   256      2    0.0677153211   11.8669726962    0.4163716759
   257      2    7.9669205580   11.8669726962    0.4163716759
   258      2   15.8661257950   11.8669726962    0.4163716759
   259      2   23.7653310319   11.8669726962    0.4163716759
   260      2   31.6645362689   11.8669726962    0.4163716759
   261      2    0.0677153211   19.7526852662    0.4163716759
   262      2    7.9669205580   19.7526852662    0.4163716759
   263      2   15.8661257950   19.7526852662    0.4163716759
   264      2   23.7653310319   19.7526852662    0.4163716759
   265      2   31.6645362689   19.7526852662    0.4163716759
   266      2    0.0677153211   27.6383978361    0.4163716759
   267      2    7.9669205580   27.6383978361    0.4163716759
   268      2   15.8661257950   27.6383978361    0.4163716759
   269      2   23.7653310319   27.6383978361    0.4163716759
   270      2   31.6645362689   27.6383978361    0.4163716759
   271      2    0.0677153211   35.5241104061    0.4163716759
   272      2    7.9669205580   35.5241104061    0.4163716759
   273      2   15.8661257950   35.5241104061    0.4163716759
   274      2   23.7653310319   35.5241104061    0.4163716759
   275      2   31.6645362689   35.5241104061    0.4163716759
   276      2    0.0677153211    3.9812601263    8.7575794939
   277      2    7.9669205580    3.9812601263    8.7575794939
   278      2   15.8661257950    3.9812601263    8.7575794939
   279      2   23.7653310319    3.9812601263    8.7575794939
   280      2   31.6645362689    3.9812601263    8.7575794939
   281      2    0.0677153211   11.8669726962    8.7575794939
   282      2    7.9669205580   11.8669726962    8.7575794939
   283      2   15.8661257950   11.8669726962    8.7575794939
   284      2   23.7653310319   11.8669726962    8.7575794939
   285      2   31.6645362689   11.8669726962    8.7575794939
   286      2    0.0677153211   19.7526852662    8.7575794939
   287      2    7.9669205580   19.7526852662    8.7575794939
   288      2   15.8661257950   19.7526852662    8.7575794939
   289      2   23.7653310319   19.7526852662    8.7575794939
   290      2   31.6645362689   19.7526852662    8.7575794939
   291      2    0.0677153211   27.6383978361    8.7575794939
   292      2    7.9669205580   27.6383978361    8.7575794939
   293      2   15.8661257950   27.6383978361    8.7575794939
   294      2   23.7653310319   27.6383978361    8.7575794939
   295      2   31.6645362689   27.6383978361    8.7575794939
   296      2    0.0677153211   35.5241104061    8.7575794939
   297      2    7.9669205580   35.5241104061    8.7575794939
   298      2   15.8661257950   35.5241104061    8.7575794939
   299      2   23.7653310319   35.5241104061    8.7575794939
   300      2   31.6645362689   35.5241104061    8.7575794939
   301      2    0.0677153211    3.9812601263   17.0987873120
   302      2    7.9669205580    3.9812601263   17.0987873120
   303      2   15.8661257950    3.9812601263   17.0987873120
   304      2   23.7653310319    3.9812601263   17.0987873120
   305      2   31.6645362689    3.9812601263   17.0987873120
   306      2    0.0677153211   11.8669726962   17.0987873120
   307      2    7.9669205580   11.8669726962   17.0987873120
   308      2   15.8661257950   11.8669726962   17.0987873120
   309      2   23.7653310319   11.8669726962   17.0987873120
   310      2   31.6645362689   11.8669726962   17.0987873120
   311      2    0.0677153211   19.7526852662   17.0987873120
   312      2    7.9669205580   19.7526852662   17.0987873120
   313      2   15.8661257950   19.7526852662   17.0987873120
   314      2   23.7653310319   19.7526852662   17.0987873120
   315      2   31.6645362689   19.7526852662   17.0987873120
   316      2    0.0677153211   27.6383978361   17.0987873120
   317      2    7.9669205580   27.6383978361   17.0987873120
   318      2   15.8661257950   27.6383978361   17.0987873120
   319      2   23.7653310319   27.6383978361   17.0987873120
   320      2   31.6645362689   27.6383978361   17.0987873120
   321      2    0.0677153211   35.5241104061   17.0987873120
   322      2    7.9669205580   35.5241104061   17.0987873120
   323      2   15.8661257950   35.5241104061   17.0987873120
   324      2   23.7653310319   35.5241104061   17.0987873120
   325      2   31.6645362689   35.5241104061   17.0987873120
   326      2    0.0677153211    3.9812601263   25.4399951300
   327      2    7.9669205580    3.9812601263   25.4399951300
   328      2   15.8661257950    3.9812601263   25.4399951300
   329      2   23.7653310319    3.9812601263   25.4399951300
   330      2   31.6645362689    3.9812601263   25.4399951300
   331      2    0.0677153211   11.8669726962   25.4399951300
   332      2    7.9669205580   11.8669726962   25.4399951300
   333      2   15.8661257950   11.8669726962   25.4399951300
   334      2   23.7653310319   11.8669726962   25.4399951300
   335      2   31.6645362689   11.8669726962   25.4399951300
   336      2    0.0677153211   19.7526852662   25.4399951300
   337      2    7.9669205580   19.7526852662   25.4399951300
   338      2   15.8661257950   19.7526852662   25.4399951300
   339      2   23.7653310319   19.7526852662   25.4399951300
   340      2   31.6645362689   19.7526852662   25.4399951300
   341      2    0.0677153211   27.6383978361   25.4399951300
   342      2    7.9669205580   27.6383978361   25.4399951300
   343      2   15.8661257950   27.6383978361   25.4399951300
   344      2   23.7653310319   27.6383978361   25.4399951300
   345      2   31.6645362689   27.6383978361   25.4399951300
   346      2    0.0677153211   35.5241104061   25.4399951300
   347      2    7.9669205580   35.5241104061   25.4399951300
   348      2   15.8661257950   35.5241104061   25.4399951300
   349      2   23.7653310319   35.5241104061   25.4399951300
   350      2   31.6645362689   35.5241104061   25.4399951300
   351      2    0.0677153211    3.9812601263   33.7812029480
   352      2    7.9669205580    3.9812601263   33.7812029480
   353      2   15.8661257950    3.9812601263   33.7812029480
   354      2   23.7653310319    3.9812601263   33.7812029480
   355      2   31.6645362689    3.9812601263   33.7812029480
   356      2    0.0677153211   11.8669726962   33.7812029480
   357      2    7.9669205580   11.8669726962   33.7812029480
   358      2   15.8661257950   11.8669726962   33.7812029480
   359      2   23.7653310319   11.8669726962   33.7812029480
   360      2   31.6645362689   11.8669726962   33.7812029480
   361      2    0.0677153211   19.7526852662   33.7812029480
   362      2    7.9669205580   19.7526852662   33.7812029480
   363      2   15.8661257950   19.7526852662   33.7812029480
   364      2   23.7653310319   19.7526852662   33.7812029480
   365      2   31.6645362689   19.7526852662   33.7812029480
   366      2    0.0677153211   27.6383978361   33.7812029480
   367      2    7.9669205580   27.6383978361   33.7812029480
   368      2   15.8661257950   27.6383978361   33.7812029480
   369      2   23.7653310319   27.6383978361   33.7812029480
   370      2   31.6645362689   27.6383978361   33.7812029480
   371      2    0.0677153211   35.5241104061   33.7812029480
   372      2    7.9669205580   35.5241104061   33.7812029480
   373      2   15.8661257950   35.5241104061   33.7812029480
   374      2   23.7653310319   35.5241104061   33.7812029480
   375      2   31.6645362689   35.5241104061   33.7812029480
   376      2   39.4283108636    3.9812601263    4.5869755849
   377      2    7.8314899158    3.9812601263    4.5869755849
   378      2   15.7306951528    3.9812601263    4.5869755849
   379      2   23.6299003897    3.9812601263    4.5869755849
   380      2   31.5291056267    3.9812601263    4.5869755849
   381      2   39.4283108636   11.8669726962    4.5869755849
   382      2    7.8314899158   11.8669726962    4.5869755849
   383      2   15.7306951528   11.8669726962    4.5869755849
   384      2   23.6299003897   11.8669726962    4.5869755849
   385      2   31.5291056267   11.8669726962    4.5869755849
   386      2   39.4283108636   19.7526852662    4.5869755849
   387      2    7.8314899158   19.7526852662    4.5869755849
   388      2   15.7306951528   19.7526852662    4.5869755849
   389      2   23.6299003897   19.7526852662    4.5869755849
   390      2   31.5291056267   19.7526852662    4.5869755849
   391      2   39.4283108636   27.6383978361    4.5869755849
   392      2    7.8314899158   27.6383978361    4.5869755849
   393      2   15.7306951528   27.6383978361    4.5869755849
   394      2   23.6299003897   27.6383978361    4.5869755849
   395      2   31.5291056267   27.6383978361    4.5869755849
   396      2   39.4283108636   35.5241104061    4.5869755849
   397      2    7.8314899158   35.5241104061    4.5869755849
   398      2   15.7306951528   35.5241104061    4.5869755849
   399      2   23.6299003897   35.5241104061    4.5869755849
   400      2   31.5291056267   35.5241104061    4.5869755849
   401      2   39.4283108636    3.9812601263   12.9281834029
   402      2    7.8314899158    3.9812601263   12.9281834029
   403      2   15.7306951528    3.9812601263   12.9281834029
   404      2   23.6299003897    3.9812601263   12.9281834029
   405      2   31.5291056267    3.9812601263   12.9281834029
   406      2   39.4283108636   11.8669726962   12.9281834029
   407      2    7.8314899158   11.8669726962   12.9281834029
   408      2   15.7306951528   11.8669726962   12.9281834029
   409      2   23.6299003897   11.8669726962   12.9281834029
   410      2   31.5291056267   11.8669726962   12.9281834029
   411      2   39.4283108636   19.7526852662   12.9281834029
   412      2    7.8314899158   19.7526852662   12.9281834029
   413      2   15.7306951528   19.7526852662   12.9281834029
   414      2   23.6299003897   19.7526852662   12.9281834029
   415      2   31.5291056267   19.7526852662   12.9281834029
   416      2   39.4283108636   27.6383978361   12.9281834029
   417      2    7.8314899158   27.6383978361   12.9281834029
   418      2   15.7306951528   27.6383978361   12.9281834029
   419      2   23.6299003897   27.6383978361   12.9281834029
   420      2   31.5291056267   27.6383978361   12.9281834029
   421      2   39.4283108636   35.5241104061   12.9281834029
   422      2    7.8314899158   35.5241104061   12.9281834029
   423      2   15.7306951528   35.5241104061   12.9281834029
   424      2   23.6299003897   35.5241104061   12.9281834029
   425      2   31.5291056267   35.5241104061   12.9281834029
   426      2   39.4283108636    3.9812601263   21.2693912210
   427      2    7.8314899158    3.9812601263   21.2693912210
   428      2   15.7306951528    3.9812601263   21.2693912210
   429      2   23.6299003897    3.9812601263   21.2693912210
   430      2   31.5291056267    3.9812601263   21.2693912210
   431      2   39.4283108636   11.8669726962   21.2693912210
   432      2    7.8314899158   11.8669726962   21.2693912210
   433      2   15.7306951528   11.8669726962   21.2693912210
   434      2   23.6299003897   11.8669726962   21.2693912210
   435      2   31.5291056267   11.8669726962   21.2693912210
   436      2   39.4283108636   19.7526852662   21.2693912210
   437      2    7.8314899158   19.7526852662   21.2693912210
   438      2   15.7306951528   19.7526852662   21.2693912210
   439      2   23.6299003897   19.7526852662   21.2693912210
   440      2   31.5291056267   19.7526852662   21.2693912210
   441      2   39.4283108636   27.6383978361   21.2693912210
   442      2    7.8314899158   27.6383978361   21.2693912210
   443      2   15.7306951528   27.6383978361   21.2693912210
   444      2   23.6299003897   27.6383978361   21.2693912210
   445      2   31.5291056267   27.6383978361   21.2693912210
   446      2   39.4283108636   35.5241104061   21.2693912210
   447      2    7.8314899158   35.5241104061   21.2693912210
   448      2   15.7306951528   35.5241104061   21.2693912210
   449      2   23.6299003897   35.5241104061   21.2693912210
   450      2   31.5291056267   35.5241104061   21.2693912210
   451      2   39.4283108636    3.9812601263   29.6105990390
   452      2    7.8314899158    3.9812601263   29.6105990390
   453      2   15.7306951528    3.9812601263   29.6105990390
   454      2   23.6299003897    3.9812601263   29.6105990390
   455      2   31.5291056267    3.9812601263   29.6105990390
   456      2   39.4283108636   11.8669726962   29.6105990390
   457      2    7.8314899158   11.8669726962   29.6105990390
   458      2   15.7306951528   11.8669726962   29.6105990390
   459      2   23.6299003897   11.8669726962   29.6105990390
   460      2   31.5291056267   11.8669726962   29.6105990390
   461      2   39.4283108636   19.7526852662   29.6105990390
   462      2    7.8314899158   19.7526852662   29.6105990390
   463      2   15.7306951528   19.7526852662   29.6105990390
   464      2   23.6299003897   19.7526852662   29.6105990390
   465      2   31.5291056267   19.7526852662   29.6105990390
   466      2   39.4283108636   27.6383978361   29.6105990390
   467      2    7.8314899158   27.6383978361   29.6105990390
   468      2   15.7306951528   27.6383978361   29.6105990390
   469      2   23.6299003897   27.6383978361   29.6105990390
   470      2   31.5291056267   27.6383978361   29.6105990390
   471      2   39.4283108636   35.5241104061   29.6105990390
   472      2    7.8314899158   35.5241104061   29.6105990390
   473      2   15.7306951528   35.5241104061   29.6105990390
   474      2   23.6299003897   35.5241104061   29.6105990390
   475      2   31.5291056267   35.5241104061   29.6105990390
   476      2   39.4283108636    3.9812601263   37.9518068571
   477      2    7.8314899158    3.9812601263   37.9518068571
   478      2   15.7306951528    3.9812601263   37.9518068571
   479      2   23.6299003897    3.9812601263   37.9518068571
   480      2   31.5291056267    3.9812601263   37.9518068571