
5000 atoms
15 atom types
   0.0000000000   41.0411949955 xlo xhi
   0.0000000000   41.0399684765 ylo yhi
   0.0000000000   41.0387607405 zlo zhi
   0.3172918129    0.3172918129    0.3148482211 xy xz yz

Atoms # atomic

     1      2    0.1709058670    0.0817469012    0.1617602696
     2      2    8.3791448661    0.0817469012    0.1617602696
     3      2   16.5873838652    0.0817469012    0.1617602696
     4      2   24.7956228643    0.0817469012    0.1617602696
     5      2   33.0038618634    0.0817469012    0.1617602696
     6      2    0.2343642296    8.2897405966    0.1617602696
     7      2    8.4426032287    8.2897405966    0.1617602696
     8      2   16.6508422278    8.2897405966    0.1617602696
     9      2   24.8590812269    8.2897405966    0.1617602696
    10      2   33.0673202260    8.2897405966    0.1617602696
    11      2    0.2978225922   16.4977342919    0.1617602696
    12      2    8.5060615913   16.4977342919    0.1617602696
    13      2   16.7143005904   16.4977342919    0.1617602696
    14      2   24.9225395895   16.4977342919    0.1617602696
    15      2   33.1307785886   16.4977342919    0.1617602696
    16      2    0.3612809548   24.7057279872    0.1617602696
    17      2    8.5695199539   24.7057279872    0.1617602696
    18      2   16.7777589530   24.7057279872    0.1617602696
    19      2   24.9859979521   24.7057279872    0.1617602696
    20      2   33.1942369512   24.7057279872    0.1617602696
    21      2    0.4247393174   32.9137216825    0.1617602696
    22      2    8.6329783164   32.9137216825    0.1617602696
    23      2   16.8412173155   32.9137216825    0.1617602696
    24      2   25.0494563146   32.9137216825    0.1617602696
    25      2   33.2576953137   32.9137216825    0.1617602696
    26      2    0.2343642296    0.1447165455    8.3695124177
    27      2    8.4426032287    0.1447165455    8.3695124177
    28      2   16.6508422278    0.1447165455    8.3695124177
    29      2   24.8590812269    0.1447165455    8.3695124177
    30      2   33.0673202260    0.1447165455    8.3695124177
    31      2    0.2978225922    8.3527102408    8.3695124177
    32      2    8.5060615913    8.3527102408    8.3695124177
    33      2   16.7143005904    8.3527102408    8.3695124177
    34      2   24.9225395895    8.3527102408    8.3695124177
    35      2   33.1307785886    8.3527102408    8.3695124177
    36      2    0.3612809548   16.5607039361    8.3695124177
    37      2    8.5695199539   16.5607039361    8.3695124177
    38      2   16.7777589530   16.5607039361    8.3695124177
    39      2   24.9859979521   16.5607039361    8.3695124177
    40      2   33.1942369512   16.5607039361    8.3695124177
    41      2    0.4247393174   24.7686976314    8.3695124177
    42      2    8.6329783164   24.7686976314    8.3695124177
    43      2   16.8412173155   24.7686976314    8.3695124177
    44      2   25.0494563146   24.7686976314    8.3695124177
    45      2   33.2576953137   24.7686976314    8.3695124177
    46      2    0.4881976799   32.9766913267    8.3695124177
    47      2    8.6964366790   32.9766913267    8.3695124177
    48      2   16.9046756781   32.9766913267    8.3695124177
    49      2   25.1129146772   32.9766913267    8.3695124177
    50      2   33.3211536763   32.9766913267    8.3695124177
    51      2    0.2978225922    0.2076861897   16.5772645658
    52      2    8.5060615913    0.2076861897   16.5772645658
    53      2   16.7143005904    0.2076861897   16.5772645658
    54      2   24.9225395895    0.2076861897   16.5772645658
    55      2   33.1307785886    0.2076861897   16.5772645658
    56      2    0.3612809548    8.4156798850   16.5772645658
    57      2    8.5695199539    8.4156798850   16.5772645658
    58      2   16.7777589530    8.4156798850   16.5772645658
    59      2   24.9859979521    8.4156798850   16.5772645658
    60      2   33.1942369512    8.4156798850   16.5772645658
    61      2    0.4247393174   16.6236735803   16.5772645658
    62      2    8.6329783165   16.6236735803   16.5772645658
    63      2   16.8412173155   16.6236735803   16.5772645658
    64      2   25.0494563146   16.6236735803   16.5772645658
    65      2   33.2576953137   16.6236735803   16.5772645658
    66      2    0.4881976799   24.8316672756   16.5772645658
    67      2    8.6964366790   24.8316672756   16.5772645658
    68      2   16.9046756781   24.8316672756   16.5772645658
    69      2   25.1129146772   24.8316672756   16.5772645658
    70      2   33.3211536763   24.8316672756   16.5772645658
    71      2    0.5516560425   33.0396609709   16.5772645658
    72      2    8.7598950416   33.0396609709   16.5772645658
    73      2   16.9681340407   33.0396609709   16.5772645658
    74      2   25.1763730398   33.0396609709   16.5772645658
    75      2   33.3846120389   33.0396609709   16.5772645658
    76      2    0.3612809548    0.2706558339   24.7850167139
    77      2    8.5695199539    0.2706558339   24.7850167139
    78      2   16.7777589530    0.2706558339   24.7850167139
    79      2   24.9859979521    0.2706558339   24.7850167139
    80      2   33.1942369512    0.2706558339   24.7850167139
    81      2    0.4247393174    8.4786495292   24.7850167139
    82      2    8.6329783165    8.4786495292   24.7850167139
    83      2   16.8412173155    8.4786495292   24.7850167139
    84      2   25.0494563146    8.4786495292   24.7850167139
    85      2   33.2576953137    8.4786495292   24.7850167139
    86      2    0.4881976799   16.6866432245   24.7850167139
    87      2    8.6964366790   16.6866432245   24.7850167139
    88      2   16.9046756781   16.6866432245   24.7850167139
    89      2   25.1129146772   16.6866432245   24.7850167139
    90      2   33.3211536763   16.6866432245   24.7850167139
    91      2    0.5516560425   24.8946369198   24.7850167139
    92      2    8.7598950416   24.8946369198   24.7850167139
    93      2   16.9681340407   24.8946369198   24.7850167139
    94      2   25.1763730398   24.8946369198   24.7850167139
    95      2   33.3846120389   24.8946369198   24.7850167139
    96      2    0.6151144051   33.1026306152   24.7850167139
    97      2    8.8233534042   33.1026306152   24.7850167139
    98      2   17.0315924033   33.1026306152   24.7850167139
    99      2   25.2398314024   33.1026306152   24.7850167139
   100      2   33.4480704015   33.1026306152   24.7850167139
   101      2    0.4247393174    0.3336254781   32.9927688620
   102      2    8.6329783165    0.3336254781   32.9927688620
   103      2   16.8412173155    0.3336254781   32.9927688620
   104      2   25.0494563146    0.3336254781   32.9927688620
   105      2   33.2576953137    0.3336254781   32.9927688620
   106      2    0.4881976799    8.5416191734   32.9927688620
   107      2    8.6964366790    8.5416191734   32.9927688620
   108      2   16.9046756781    8.5416191734   32.9927688620
   109      2   25.1129146772    8.5416191734   32.9927688620
   110      2   33.3211536763    8.5416191734   32.9927688620
   111      2    0.5516560425   16.7496128688   32.9927688620
   112      2    8.7598950416   16.7496128688   32.9927688620
   113      2   16.9681340407   16.7496128688   32.9927688620
   114      2   25.1763730398   16.7496128688   32.9927688620
   115      2   33.3846120389   16.7496128688   32.9927688620
   116      2    0.6151144051   24.9576065641   32.9927688620
   117      2    8.8233534042   24.9576065641   32.9927688620
   118      2   17.0315924033   24.9576065641   32.9927688620
   119      2   25.2398314024   24.9576065641   32.9927688620
   120      2   33.4480704015   24.9576065641   32.9927688620
   121      2    0.6785727677   33.1656002594   32.9927688620
   122      2    8.8868117668   33.1656002594   32.9927688620
   123      2   17.0950507659   33.1656002594   32.9927688620
   124      2   25.3032897649   33.1656002594   32.9927688620
   125      2   33.5115287640   33.1656002594   32.9927688620
   126      2    0.1147949229    0.2017535921    4.2656363929
   127      2    8.3230339220    0.2017535921    4.2656363929
   128      2   16.5312729211    0.2017535921    4.2656363929
   129      2   24.7395119202    0.2017535921    4.2656363929
   130      2   32.9477509193    0.2017535921    4.2656363929
   131      2    0.1782532855    8.4097472874    4.2656363929
   132      2    8.3864922846    8.4097472874    4.2656363929
   133      2   16.5947312836    8.4097472874    4.2656363929
   134      2   24.8029702827    8.4097472874    4.2656363929
   135      2   33.0112092818    8.4097472874    4.2656363929
   136      2    0.2417116480   16.6177409827    4.2656363929
   137      2    8.4499506471   16.6177409827    4.2656363929
   138      2   16.6581896462   16.6177409827    4.2656363929
   139      2   24.8664286453   16.6177409827    4.2656363929
   140      2   33.0746676444   16.6177409827    4.2656363929
   141      2    0.3051700106   24.8257346780    4.2656363929
   142      2    8.5134090097   24.8257346780    4.2656363929
   143      2   16.7216480088   24.8257346780    4.2656363929
   144      2   24.9298870079   24.8257346780    4.2656363929
   145      2   33.1381260070   24.8257346780    4.2656363929
   146      2    0.3686283732   33.0337283733    4.2656363929
   147      2    8.5768673723   33.0337283733    4.2656363929
   148      2   16.7851063714   33.0337283733    4.2656363929
   149      2   24.9933453705   33.0337283733    4.2656363929
   150      2   33.2015843696   33.0337283733    4.2656363929
   151      2    0.1782532855    0.2647232363   12.4733885410
   152      2    8.3864922846    0.2647232363   12.4733885410
   153      2   16.5947312836    0.2647232363   12.4733885410
   154      2   24.8029702827    0.2647232363   12.4733885410
   155      2   33.0112092818    0.2647232363   12.4733885410
   156      2    0.2417116480    8.4727169316   12.4733885410
   157      2    8.4499506471    8.4727169316   12.4733885410
   158      2   16.6581896462    8.4727169316   12.4733885410
   159      2   24.8664286453    8.4727169316   12.4733885410
   160      2   33.0746676444    8.4727169316   12.4733885410
   161      2    0.3051700106   16.6807106269   12.4733885410
   162      2    8.5134090097   16.6807106269   12.4733885410
   163      2   16.7216480088   16.6807106269   12.4733885410
   164      2   24.9298870079   16.6807106269   12.4733885410
   165      2   33.1381260070   16.6807106269   12.4733885410
   166      2    0.3686283732   24.8887043222   12.4733885410
   167      2    8.5768673723   24.8887043222   12.4733885410
   168      2   16.7851063714   24.8887043222   12.4733885410
   169      2   24.9933453705   24.8887043222   12.4733885410
   170      2   33.2015843696   24.8887043222   12.4733885410
   171      2    0.4320867358   33.0966980175   12.4733885410
   172      2    8.6403257349   33.0966980175   12.4733885410
   173      2   16.8485647340   33.0966980175   12.4733885410
   174      2   25.0568037330   33.0966980175   12.4733885410
   175      2   33.2650427321   33.0966980175   12.4733885410
   176      2    0.2417116480    0.3276928805   20.6811406891
   177      2    8.4499506471    0.3276928805   20.6811406891
   178      2   16.6581896462    0.3276928805   20.6811406891
   179      2   24.8664286453    0.3276928805   20.6811406891
   180      2   33.0746676444    0.3276928805   20.6811406891
   181      2    0.3051700106    8.5356865758   20.6811406891
   182      2    8.5134090097    8.5356865758   20.6811406891
   183      2   16.7216480088    8.5356865758   20.6811406891
   184      2   24.9298870079    8.5356865758   20.6811406891
   185      2   33.1381260070    8.5356865758   20.6811406891
   186      2    0.3686283732   16.7436802711   20.6811406891
   187      2    8.5768673723   16.7436802711   20.6811406891
   188      2   16.7851063714   16.7436802711   20.6811406891
   189      2   24.9933453705   16.7436802711   20.6811406891
   190      2   33.2015843696   16.7436802711   20.6811406891
   191      2    0.4320867358   24.9516739664   20.6811406891
   192      2    8.6403257349   24.9516739664   20.6811406891
   193      2   16.8485647340   24.9516739664   20.6811406891
   194      2   25.0568037330   24.9516739664   20.6811406891
   195      2   33.2650427321   24.9516739664   20.6811406891
   196      2    0.4955450983   33.1596676617   20.6811406891
   197      2    8.7037840974   33.1596676617   20.6811406891
   198      2   16.9120230965   33.1596676617   20.6811406891
   199      2   25.1202620956   33.1596676617   20.6811406891
   200      2   33.3285010947   33.1596676617   20.6811406891
   201      2    0.3051700106    0.3906625247   28.8888928372
   202      2    8.5134090097    0.3906625247   28.8888928372
   203      2   16.7216480088    0.3906625247   28.8888928372
   204      2   24.9298870079    0.3906625247   28.8888928372
   205      2   33.1381260070    0.3906625247   28.8888928372
   206      2    0.3686283732    8.5986562200   28.8888928372
   207      2    8.5768673723    8.5986562200   28.8888928372
   208      2   16.7851063714    8.5986562200   28.8888928372
   209      2   24.9933453705    8.5986562200   28.8888928372
   210      2   33.2015843696    8.5986562200   28.8888928372
   211      2    0.4320867358   16.8066499154   28.8888928372
   212      2    8.6403257349   16.8066499154   28.8888928372
   213      2   16.8485647340   16.8066499154   28.8888928372
   214      2   25.0568037330   16.8066499154   28.8888928372
   215      2   33.2650427321   16.8066499154   28.8888928372
   216      2    0.4955450983   25.0146436107   28.8888928372
   217      2    8.7037840974   25.0146436107   28.8888928372
   218      2   16.9120230965   25.0146436107   28.8888928372
   219      2   25.1202620956   25.0146436107   28.8888928372
   220      2   33.3285010947   25.0146436107   28.8888928372
   221      2    0.5590034609   33.2226373060   28.8888928372
   222      2    8.7672424600   33.2226373060   28.8888928372
   223      2   16.9754814591   33.2226373060   28.8888928372
   224      2   25.1837204582   33.2226373060   28.8888928372
   225      2   33.3919594573   33.2226373060   28.8888928372
   226      2    0.3686283732    0.4536321690   37.0966449853
   227      2    8.5768673723    0.4536321690   37.0966449853
   228      2   16.7851063714    0.4536321690   37.0966449853
   229      2   24.9933453705    0.4536321690   37.0966449853
   230      2   33.2015843696    0.4536321690   37.0966449853
   231      2    0.4320867358    8.6616258643   37.0966449853
   232      2    8.6403257349    8.6616258643   37.0966449853
   233      2   16.8485647340    8.6616258643   37.0966449853
   234      2   25.0568037330    8.6616258643   37.0966449853
   235      2   33.2650427321    8.6616258643   37.0966449853
   236      2    0.4955450983   16.8696195596   37.0966449853
   237      2    8.7037840974   16.8696195596   37.0966449853
   238      2   16.9120230965   16.8696195596   37.0966449853
   239      2   25.1202620956   16.8696195596   37.0966449853
   240      2   33.3285010947   16.8696195596   37.0966449853
   241      2    0.5590034609   25.0776132549   37.0966449853
   242      2    8.7672424600   25.0776132549   37.0966449853
   243      2   16.9754814591   25.0776132549   37.0966449853
   244      2   25.1837204582   25.0776132549   37.0966449853
   245      2   33.3919594573   25.0776132549   37.0966449853
   246      2    0.6224618235   33.2856069502   37.0966449853
   247      2    8.8307008226   33.2856069502   37.0966449853
   248      2   17.0389398217   33.2856069502   37.0966449853
   249      2   25.2471788208   33.2856069502   37.0966449853
   250      2   33.4554178199   33.2856069502   37.0966449853
   251      2    0.2270261165    4.2977901054    0.1923118017
   252      2    8.4352651155    4.2977901054    0.1923118017
   253      2   16.6435041146    4.2977901054    0.1923118017
   254      2   24.8517431137    4.2977901054    0.1923118017
   255      2   33.0599821128    4.2977901054    0.1923118017
   256      2    0.2904844790   12.5057838007    0.1923118017
   257      2    8.4987234781   12.5057838007    0.1923118017
   258      2   16.7069624772   12.5057838007    0.1923118017
   259      2   24.9152014763   12.5057838007    0.1923118017
   260      2   33.1234404754   12.5057838007    0.1923118017
   261      2    0.3539428416   20.7137774960    0.1923118017
   262      2    8.5621818407   20.7137774960    0.1923118017
   263      2   16.7704208398   20.7137774960    0.1923118017
   264      2   24.9786598389   20.7137774960    0.1923118017
   265      2   33.1868988380   20.7137774960    0.1923118017
   266      2    0.4174012042   28.9217711914    0.1923118017
   267      2    8.6256402033   28.9217711914    0.1923118017
   268      2   16.8338792024   28.9217711914    0.1923118017
   269      2   25.0421182015   28.9217711914    0.1923118017
   270      2   33.2503572006   28.9217711914    0.1923118017
   271      2    0.4808595668   37.1297648867    0.1923118017
   272      2    8.6890985659   37.1297648867    0.1923118017
   273      2   16.8973375649   37.1297648867    0.1923118017
   274      2   25.1055765640   37.1297648867    0.1923118017
   275      2   33.3138155631   37.1297648867    0.1923118017
   276      2    0.2904844790    4.3607597497    8.4000639498
   277      2    8.4987234781    4.3607597497    8.4000639498
   278      2   16.7069624772    4.3607597497    8.4000639498
   279      2   24.9152014763    4.3607597497    8.4000639498
   280      2   33.1234404754    4.3607597497    8.4000639498
   281      2    0.3539428416   12.5687534450    8.4000639498
   282      2    8.5621818407   12.5687534450    8.4000639498
   283      2   16.7704208398   12.5687534450    8.4000639498
   284      2   24.9786598389   12.5687534450    8.4000639498
   285      2   33.1868988380   12.5687534450    8.4000639498
   286      2    0.4174012042   20.7767471403    8.4000639498
   287      2    8.6256402033   20.7767471403    8.4000639498
   288      2   16.8338792024   20.7767471403    8.4000639498
   289      2   25.0421182015   20.7767471403    8.4000639498
   290      2   33.2503572006   20.7767471403    8.4000639498
   291      2    0.4808595668   28.9847408356    8.4000639498
   292      2    8.6890985659   28.9847408356    8.4000639498
   293      2   16.8973375649   28.9847408356    8.4000639498
   294      2   25.1055765640   28.9847408356    8.4000639498
   295      2   33.3138155631   28.9847408356    8.4000639498
   296      2    0.5443179293   37.1927345309    8.4000639498
   297      2    8.7525569284   37.1927345309    8.4000639498
   298      2   16.9607959275   37.1927345309    8.4000639498
   299      2   25.1690349266   37.1927345309    8.4000639498
   300      2   33.3772739257   37.1927345309    8.4000639498
   301      2    0.3539428416    4.4237293939   16.6078160979
   302      2    8.5621818407    4.4237293939   16.6078160979
   303      2   16.7704208398    4.4237293939   16.6078160979
   304      2   24.9786598389    4.4237293939   16.6078160979
   305      2   33.1868988380    4.4237293939   16.6078160979
   306      2    0.4174012042   12.6317230892   16.6078160979
   307      2    8.6256402033   12.6317230892   16.6078160979
   308      2   16.8338792024   12.6317230892   16.6078160979
   309      2   25.0421182015   12.6317230892   16.6078160979
   310      2   33.2503572006   12.6317230892   16.6078160979
   311      2    0.4808595668   20.8397167845   16.6078160979
   312      2    8.6890985659   20.8397167845   16.6078160979
   313      2   16.8973375649   20.8397167845   16.6078160979
   314      2   25.1055765640   20.8397167845   16.6078160979
   315      2   33.3138155631   20.8397167845   16.6078160979
   316      2    0.5443179293   29.0477104798   16.6078160979
   317      2    8.7525569284   29.0477104798   16.6078160979
   318      2   16.9607959275   29.0477104798   16.6078160979
   319      2   25.1690349266   29.0477104798   16.6078160979
   320      2   33.3772739257   29.0477104798   16.6078160979
   321      2    0.6077762919   37.2557041751   16.6078160979
   322      2    8.8160152910   37.2557041751   16.6078160979
   323      2   17.0242542901   37.2557041751   16.6078160979
   324      2   25.2324932892   37.2557041751   16.6078160979
   325      2   33.4407322883   37.2557041751   16.6078160979
   326      2    0.4174012042    4.4866990381   24.8155682460
   327      2    8.6256402033    4.4866990381   24.8155682460
   328      2   16.8338792024    4.4866990381   24.8155682460
   329      2   25.0421182015    4.4866990381   24.8155682460
   330      2   33.2503572006    4.4866990381   24.8155682460
   331      2    0.4808595668   12.6946927334   24.8155682460
   332      2    8.6890985659   12.6946927334   24.8155682460
   333      2   16.8973375649   12.6946927334   24.8155682460
   334      2   25.1055765640   12.6946927334   24.8155682460
   335      2   33.3138155631   12.6946927334   24.8155682460
   336      2    0.5443179293   20.9026864287   24.8155682460
   337      2    8.7525569284   20.9026864287   24.8155682460
   338      2   16.9607959275   20.9026864287   24.8155682460
   339      2   25.1690349266   20.9026864287   24.8155682460
   340      2   33.3772739257   20.9026864287   24.8155682460
   341      2    0.6077762919   29.1106801240   24.8155682460
   342      2    8.8160152910   29.1106801240   24.8155682460
   343      2   17.0242542901   29.1106801240   24.8155682460
   344      2   25.2324932892   29.1106801240   24.8155682460
   345      2   33.4407322883   29.1106801240   24.8155682460
   346      2    0.6712346545   37.3186738193   24.8155682460
   347      2    8.8794736536   37.3186738193   24.8155682460
   348      2   17.0877126527   37.3186738193   24.8155682460
   349      2   25.2959516518   37.3186738193   24.8155682460
   350      2   33.5041906509   37.3186738193   24.8155682460
   351      2    0.4808595668    4.5496686823   33.0233203941
   352      2    8.6890985659    4.5496686823   33.0233203941
   353      2   16.8973375649    4.5496686823   33.0233203941
   354      2   25.1055765640    4.5496686823   33.0233203941
   355      2   33.3138155631    4.5496686823   33.0233203941
   356      2    0.5443179293   12.7576623776   33.0233203941
   357      2    8.7525569284   12.7576623776   33.0233203941
   358      2   16.9607959275   12.7576623776   33.0233203941
   359      2   25.1690349266   12.7576623776   33.0233203941
   360      2   33.3772739257   12.7576623776   33.0233203941
   361      2    0.6077762919   20.9656560729   33.0233203941
   362      2    8.8160152910   20.9656560729   33.0233203941
   363      2   17.0242542901   20.9656560729   33.0233203941
   364      2   25.2324932892   20.9656560729   33.0233203941
   365      2   33.4407322883   20.9656560729   33.0233203941
   366      2    0.6712346545   29.1736497683   33.0233203941
   367      2    8.8794736536   29.1736497683   33.0233203941
   368      2   17.0877126527   29.1736497683   33.0233203941
   369      2   25.2959516518   29.1736497683   33.0233203941
   370      2   33.5041906509   29.1736497683   33.0233203941
   371      2    0.7346930171   37.3816434636   33.0233203941
   372      2    8.9429320162   37.3816434636   33.0233203941
   373      2   17.1511710153   37.3816434636   33.0233203941
   374      2   25.3594100143   37.3816434636   33.0233203941
   375      2   33.5676490134   37.3816434636   33.0233203941
   376      2    0.2271574450    4.3051270901    4.1843797254
   377      2    8.4353964440    4.3051270901    4.1843797254
   378      2   16.6436354431    4.3051270901    4.1843797254
   379      2   24.8518744422    4.3051270901    4.1843797254
   380      2   33.0601134413    4.3051270901    4.1843797254
   381      2    0.2906158075   12.5131207854    4.1843797254
   382      2    8.4988548066   12.5131207854    4.1843797254
   383      2   16.7070938057   12.5131207854    4.1843797254
   384      2   24.9153328048   12.5131207854    4.1843797254
   385      2   33.1235718039   12.5131207854    4.1843797254
   386      2    0.3540741701   20.7211144807    4.1843797254
   387      2    8.5623131692   20.7211144807    4.1843797254
   388      2   16.7705521683   20.7211144807    4.1843797254
   389      2   24.9787911674   20.7211144807    4.1843797254
   390      2   33.1870301665   20.7211144807    4.1843797254
   391      2    0.4175325327   28.9291081760    4.1843797254
   392      2    8.6257715318   28.9291081760    4.1843797254
   393      2   16.8340105309   28.9291081760    4.1843797254
   394      2   25.0422495300   28.9291081760    4.1843797254
   395      2   33.2504885291   28.9291081760    4.1843797254
   396      2    0.4809908953   37.1371018713    4.1843797254
   397      2    8.6892298944   37.1371018713    4.1843797254
   398      2   16.8974688934   37.1371018713    4.1843797254
   399      2   25.1057078925   37.1371018713    4.1843797254
   400      2   33.3139468916   37.1371018713    4.1843797254
   401      2    0.2906158075    4.3680967343   12.3921318735
   402      2    8.4988548066    4.3680967343   12.3921318735
   403      2   16.7070938057    4.3680967343   12.3921318735
   404      2   24.9153328048    4.3680967343   12.3921318735
   405      2   33.1235718039    4.3680967343   12.3921318735
   406      2    0.3540741701   12.5760904296   12.3921318735
   407      2    8.5623131692   12.5760904296   12.3921318735
   408      2   16.7705521683   12.5760904296   12.3921318735
   409      2   24.9787911674   12.5760904296   12.3921318735
   410      2   33.1870301665   12.5760904296   12.3921318735
   411      2    0.4175325327   20.7840841249   12.3921318735
   412      2    8.6257715318   20.7840841249   12.3921318735
   413      2   16.8340105309   20.7840841249   12.3921318735
   414      2   25.0422495300   20.7840841249   12.3921318735
   415      2   33.2504885291   20.7840841249   12.3921318735
   416      2    0.4809908953   28.9920778202   12.3921318735
   417      2    8.6892298944   28.9920778202   12.3921318735
   418      2   16.8974688934   28.9920778202   12.3921318735
   419      2   25.1057078925   28.9920778202   12.3921318735
   420      2   33.3139468916   28.9920778202   12.3921318735
   421      2    0.5444492578   37.2000715155   12.3921318735
   422      2    8.7526882569   37.2000715155   12.3921318735
   423      2   16.9609272560   37.2000715155   12.3921318735
   424      2   25.1691662551   37.2000715155   12.3921318735
   425      2   33.3774052542   37.2000715155   12.3921318735
   426      2    0.3540741701    4.4310663785   20.5998840216
   427      2    8.5623131692    4.4310663785   20.5998840216
   428      2   16.7705521683    4.4310663785   20.5998840216
   429      2   24.9787911674    4.4310663785   20.5998840216
   430      2   33.1870301665    4.4310663785   20.5998840216
   431      2    0.4175325327   12.6390600738   20.5998840216
   432      2    8.6257715318   12.6390600738   20.5998840216
   433      2   16.8340105309   12.6390600738   20.5998840216
   434      2   25.0422495300   12.6390600738   20.5998840216
   435      2   33.2504885291   12.6390600738   20.5998840216
   436      2    0.4809908953   20.8470537692   20.5998840216
   437      2    8.6892298944   20.8470537692   20.5998840216
   438      2   16.8974688934   20.8470537692   20.5998840216
   439      2   25.1057078925   20.8470537692   20.5998840216
   440      2   33.3139468916   20.8470537692   20.5998840216
   441      2    0.5444492578   29.0550474645   20.5998840216
   442      2    8.7526882569   29.0550474645   20.5998840216
   443      2   16.9609272560   29.0550474645   20.5998840216
   444      2   25.1691662551   29.0550474645   20.5998840216
   445      2   33.3774052542   29.0550474645   20.5998840216
   446      2    0.6079076204   37.2630411598   20.5998840216
   447      2    8.8161466195   37.2630411598   20.5998840216
   448      2   17.0243856186   37.2630411598   20.5998840216
   449      2   25.2326246177   37.2630411598   20.5998840216
   450      2   33.4408636168   37.2630411598   20.5998840216
   451      2    0.4175325327    4.4940360228   28.8076361698
   452      2    8.6257715318    4.4940360228   28.8076361698
   453      2   16.8340105309    4.4940360228   28.8076361698
   454      2   25.0422495300    4.4940360228   28.8076361698
   455      2   33.2504885291    4.4940360228   28.8076361698
   456      2    0.4809908953   12.7020297181   28.8076361698
   457      2    8.6892298944   12.7020297181   28.8076361698
   458      2   16.8974688934   12.7020297181   28.8076361698
   459      2   25.1057078925   12.7020297181   28.8076361698
   460      2   33.3139468916   12.7020297181   28.8076361698
   461      2    0.5444492578   20.9100234134   28.8076361698
   462      2    8.7526882569   20.9100234134   28.8076361698
   463      2   16.9609272560   20.9100234134   28.8076361698
   464      2   25.1691662551   20.9100234134   28.8076361698
   465      2   33.3774052542   20.9100234134   28.8076361698
   466      2    0.6079076204   29.1180171087   28.8076361698
   467      2    8.8161466195   29.1180171087   28.8076361698
   468      2   17.0243856186   29.1180171087   28.8076361698
   469      2   25.2326246177   29.1180171087   28.8076361698
   470      2   33.4408636168   29.1180171087   28.8076361698
   471      2    0.6713659830   37.3260108040   28.8076361698
   472      2    8.8796049821   37.3260108040   28.8076361698
   473      2   17.0878439812   37.3260108040   28.8076361698
   474      2   25.2960829803   37.3260108040   28.8076361698
   475      2   33.5043219794   37.3260108040   28.8076361698
   476      2    0.4809908953    4.5570056670   37.0153883179
   477      2    8.6892298944    4.5570056670   37.0153883179
   478      2   16.8974688934    4.5570056670   37.0153883179
   479      2   25.1057078925    4.5570056670   37.0153883179
   480      2   33.3139468916    4.5570056670   37.0153883179