
5000 atoms
15 atom types
   0.0000000000   29.8946189880 xlo xhi
   0.0000000000   41.5851736070 ylo yhi
   0.0000000000   59.7291135790 zlo zhi
   0.0000000000    0.0000000000    0.0000000000 xy xz yz

Atoms # atomic

     1      2    1.8199544496    0.0000000000   10.4695339813
     2      2    1.8199544496    0.0000000000   22.4153566971
     3      2    1.8199544496    0.0000000000   34.3611794129
     4      2    1.8199544496    0.0000000000   46.3070021287
     5      2    1.8199544496    0.0000000000   58.2528248445
     6      2    1.8199544496    8.3170347214   10.4695339813
     7      2    1.8199544496    8.3170347214   22.4153566971
     8      2    1.8199544496    8.3170347214   34.3611794129
     9      2    1.8199544496    8.3170347214   46.3070021287
    10      2    1.8199544496    8.3170347214   58.2528248445
    11      2    1.8199544496   16.6340694428   10.4695339813
    12      2    1.8199544496   16.6340694428   22.4153566971
    13      2    1.8199544496   16.6340694428   34.3611794129
    14      2    1.8199544496   16.6340694428   46.3070021287
    15      2    1.8199544496   16.6340694428   58.2528248445
    16      2    1.8199544496   24.9511041642   10.4695339813
    17      2    1.8199544496   24.9511041642   22.4153566971
    18      2    1.8199544496   24.9511041642   34.3611794129
    19      2    1.8199544496   24.9511041642   46.3070021287
    20      2    1.8199544496   24.9511041642   58.2528248445
    21      2    1.8199544496   33.2681388856   10.4695339813
    22      2    1.8199544496   33.2681388856   22.4153566971
    23      2    1.8199544496   33.2681388856   34.3611794129
    24      2    1.8199544496   33.2681388856   46.3070021287
    25      2    1.8199544496   33.2681388856   58.2528248445
    26      2    7.7988782472    0.0000000000   10.4695339813
    27      2    7.7988782472    0.0000000000   22.4153566971
    28      2    7.7988782472    0.0000000000   34.3611794129
    29      2    7.7988782472    0.0000000000   46.3070021287
    30      2    7.7988782472    0.0000000000   58.2528248445
    31      2    7.7988782472    8.3170347214   10.4695339813
    32      2    7.7988782472    8.3170347214   22.4153566971
    33      2    7.7988782472    8.3170347214   34.3611794129
    34      2    7.7988782472    8.3170347214   46.3070021287
    35      2    7.7988782472    8.3170347214   58.2528248445
    36      2    7.7988782472   16.6340694428   10.4695339813
    37      2    7.7988782472   16.6340694428   22.4153566971
    38      2    7.7988782472   16.6340694428   34.3611794129
    39      2    7.7988782472   16.6340694428   46.3070021287
    40      2    7.7988782472   16.6340694428   58.2528248445
    41      2    7.7988782472   24.9511041642   10.4695339813
    42      2    7.7988782472   24.9511041642   22.4153566971
    43      2    7.7988782472   24.9511041642   34.3611794129
    44      2    7.7988782472   24.9511041642   46.3070021287
    45      2    7.7988782472   24.9511041642   58.2528248445
    46      2    7.7988782472   33.2681388856   10.4695339813
    47      2    7.7988782472   33.2681388856   22.4153566971
    48      2    7.7988782472   33.2681388856   34.3611794129
    49      2    7.7988782472   33.2681388856   46.3070021287
    50      2    7.7988782472   33.2681388856   58.2528248445
    51      2   13.7778020448    0.0000000000   10.4695339813
    52      2   13.7778020448    0.0000000000   22.4153566971
    53      2   13.7778020448    0.0000000000   34.3611794129
    54      2   13.7778020448    0.0000000000   46.3070021287
    55      2   13.7778020448    0.0000000000   58.2528248445
    56      2   13.7778020448    8.3170347214   10.4695339813
    57      2   13.7778020448    8.3170347214   22.4153566971
    58      2   13.7778020448    8.3170347214   34.3611794129
    59      2   13.7778020448    8.3170347214   46.3070021287
    60      2   13.7778020448    8.3170347214   58.2528248445
    61      2   13.7778020448   16.6340694428   10.4695339813
    62      2   13.7778020448   16.6340694428   22.4153566971
    63      2   13.7778020448   16.6340694428   34.3611794129
    64      2   13.7778020448   16.6340694428   46.3070021287
    65      2   13.7778020448   16.6340694428   58.2528248445
    66      2   13.7778020448   24.9511041642   10.4695339813
    67      2   13.7778020448   24.9511041642   22.4153566971
    68      2   13.7778020448   24.9511041642   34.3611794129
    69      2   13.7778020448   24.9511041642   46.3070021287
    70      2   13.7778020448   24.9511041642   58.2528248445
    71      2   13.7778020448   33.2681388856   10.4695339813
    72      2   13.7778020448   33.2681388856   22.4153566971
    73      2   13.7778020448   33.2681388856   34.3611794129
    74      2   13.7778020448   33.2681388856   46.3070021287
    75      2   13.7778020448   33.2681388856   58.2528248445
    76      2   19.7567258424    0.0000000000   10.4695339813
    77      2   19.7567258424    0.0000000000   22.4153566971
    78      2   19.7567258424    0.0000000000   34.3611794129
    79      2   19.7567258424    0.0000000000   46.3070021287
    80      2   19.7567258424    0.0000000000   58.2528248445
    81      2   19.7567258424    8.3170347214   10.4695339813
    82      2   19.7567258424    8.3170347214   22.4153566971
    83      2   19.7567258424    8.3170347214   34.3611794129
    84      2   19.7567258424    8.3170347214   46.3070021287
    85      2   19.7567258424    8.3170347214   58.2528248445
    86      2   19.7567258424   16.6340694428   10.4695339813
    87      2   19.7567258424   16.6340694428   22.4153566971
    88      2   19.7567258424   16.6340694428   34.3611794129
    89      2   19.7567258424   16.6340694428   46.3070021287
    90      2   19.7567258424   16.6340694428   58.2528248445
    91      2   19.7567258424   24.9511041642   10.4695339813
    92      2   19.7567258424   24.9511041642   22.4153566971
    93      2   19.7567258424   24.9511041642   34.3611794129
    94      2   19.7567258424   24.9511041642   46.3070021287
    95      2   19.7567258424   24.9511041642   58.2528248445
    96      2   19.7567258424   33.2681388856   10.4695339813
    97      2   19.7567258424   33.2681388856   22.4153566971
    98      2   19.7567258424   33.2681388856   34.3611794129
    99      2   19.7567258424   33.2681388856   46.3070021287
   100      2   19.7567258424   33.2681388856   58.2528248445
   101      2   25.7356496400    0.0000000000   10.4695339813
   102      2   25.7356496400    0.0000000000   22.4153566971
   103      2   25.7356496400    0.0000000000   34.3611794129
   104      2   25.7356496400    0.0000000000   46.3070021287
   105      2   25.7356496400    0.0000000000   58.2528248445
   106      2   25.7356496400    8.3170347214   10.4695339813
   107      2   25.7356496400    8.3170347214   22.4153566971
   108      2   25.7356496400    8.3170347214   34.3611794129
   109      2   25.7356496400    8.3170347214   46.3070021287
   110      2   25.7356496400    8.3170347214   58.2528248445
   111      2   25.7356496400   16.6340694428   10.4695339813
   112      2   25.7356496400   16.6340694428   22.4153566971
   113      2   25.7356496400   16.6340694428   34.3611794129
   114      2   25.7356496400   16.6340694428   46.3070021287
   115      2   25.7356496400   16.6340694428   58.2528248445
   116      2   25.7356496400   24.9511041642   10.4695339813
   117      2   25.7356496400   24.9511041642   22.4153566971
   118      2   25.7356496400   24.9511041642   34.3611794129
   119      2   25.7356496400   24.9511041642   46.3070021287
   120      2   25.7356496400   24.9511041642   58.2528248445
   121      2   25.7356496400   33.2681388856   10.4695339813
   122      2   25.7356496400   33.2681388856   22.4153566971
   123      2   25.7356496400   33.2681388856   34.3611794129
   124      2   25.7356496400   33.2681388856   46.3070021287
   125      2   25.7356496400   33.2681388856   58.2528248445
   126      2    4.8094165277    0.0000000000    7.4492000924
   127      2    4.8094165277    0.0000000000   19.3950228082
   128      2    4.8094165277    0.0000000000   31.3408455240
   129      2    4.8094165277    0.0000000000   43.2866682398
   130      2    4.8094165277    0.0000000000   55.2324909556
   131      2    4.8094165277    8.3170347214    7.4492000924
   132      2    4.8094165277    8.3170347214   19.3950228082
   133      2    4.8094165277    8.3170347214   31.3408455240
   134      2    4.8094165277    8.3170347214   43.2866682398
   135      2    4.8094165277    8.3170347214   55.2324909556
   136      2    4.8094165277   16.6340694428    7.4492000924
   137      2    4.8094165277   16.6340694428   19.3950228082
   138      2    4.8094165277   16.6340694428   31.3408455240
   139      2    4.8094165277   16.6340694428   43.2866682398
   140      2    4.8094165277   16.6340694428   55.2324909556
   141      2    4.8094165277   24.9511041642    7.4492000924
   142      2    4.8094165277   24.9511041642   19.3950228082
   143      2    4.8094165277   24.9511041642   31.3408455240
   144      2    4.8094165277   24.9511041642   43.2866682398
   145      2    4.8094165277   24.9511041642   55.2324909556
   146      2    4.8094165277   33.2681388856    7.4492000924
   147      2    4.8094165277   33.2681388856   19.3950228082
   148      2    4.8094165277   33.2681388856   31.3408455240
   149      2    4.8094165277   33.2681388856   43.2866682398
   150      2    4.8094165277   33.2681388856   55.2324909556
   151      2   10.7883403253    0.0000000000    7.4492000924
   152      2   10.7883403253    0.0000000000   19.3950228082
   153      2   10.7883403253    0.0000000000   31.3408455240
   154      2   10.7883403253    0.0000000000   43.2866682398
   155      2   10.7883403253    0.0000000000   55.2324909556
   156      2   10.7883403253    8.3170347214    7.4492000924
   157      2   10.7883403253    8.3170347214   19.3950228082
   158      2   10.7883403253    8.3170347214   31.3408455240
   159      2   10.7883403253    8.3170347214   43.2866682398
   160      2   10.7883403253    8.3170347214   55.2324909556
   161      2   10.7883403253   16.6340694428    7.4492000924
   162      2   10.7883403253   16.6340694428   19.3950228082
   163      2   10.7883403253   16.6340694428   31.3408455240
   164      2   10.7883403253   16.6340694428   43.2866682398
   165      2   10.7883403253   16.6340694428   55.2324909556
   166      2   10.7883403253   24.9511041642    7.4492000924
   167      2   10.7883403253   24.9511041642   19.3950228082
   168      2   10.7883403253   24.9511041642   31.3408455240
   169      2   10.7883403253   24.9511041642   43.2866682398
   170      2   10.7883403253   24.9511041642   55.2324909556
   171      2   10.7883403253   33.2681388856    7.4492000924
   172      2   10.7883403253   33.2681388856   19.3950228082
   173      2   10.7883403253   33.2681388856   31.3408455240
   174      2   10.7883403253   33.2681388856   43.2866682398
   175      2   10.7883403253   33.2681388856   55.2324909556
   176      2   16.7672641229    0.0000000000    7.4492000924
   177      2   16.7672641229    0.0000000000   19.3950228082
   178      2   16.7672641229    0.0000000000   31.3408455240
   179      2   16.7672641229    0.0000000000   43.2866682398
   180      2   16.7672641229    0.0000000000   55.2324909556
   181      2   16.7672641229    8.3170347214    7.4492000924
   182      2   16.7672641229    8.3170347214   19.3950228082
   183      2   16.7672641229    8.3170347214   31.3408455240
   184      2   16.7672641229    8.3170347214   43.2866682398
   185      2   16.7672641229    8.3170347214   55.2324909556
   186      2   16.7672641229   16.6340694428    7.4492000924
   187      2   16.7672641229   16.6340694428   19.3950228082
   188      2   16.7672641229   16.6340694428   31.3408455240
   189      2   16.7672641229   16.6340694428   43.2866682398
   190      2   16.7672641229   16.6340694428   55.2324909556
   191      2   16.7672641229   24.9511041642    7.4492000924
   192      2   16.7672641229   24.9511041642   19.3950228082
   193      2   16.7672641229   24.9511041642   31.3408455240
   194      2   16.7672641229   24.9511041642   43.2866682398
   195      2   16.7672641229   24.9511041642   55.2324909556
   196      2   16.7672641229   33.2681388856    7.4492000924
   197      2   16.7672641229   33.2681388856   19.3950228082
   198      2   16.7672641229   33.2681388856   31.3408455240
   199      2   16.7672641229   33.2681388856   43.2866682398
   200      2   16.7672641229   33.2681388856   55.2324909556
   201      2   22.7461879205    0.0000000000    7.4492000924
   202      2   22.7461879205    0.0000000000   19.3950228082
   203      2   22.7461879205    0.0000000000   31.3408455240
   204      2   22.7461879205    0.0000000000   43.2866682398
   205      2   22.7461879205    0.0000000000   55.2324909556
   206      2   22.7461879205    8.3170347214    7.4492000924
   207      2   22.7461879205    8.3170347214   19.3950228082
   208      2   22.7461879205    8.3170347214   31.3408455240
   209      2   22.7461879205    8.3170347214   43.2866682398
   210      2   22.7461879205    8.3170347214   55.2324909556
   211      2   22.7461879205   16.6340694428    7.4492000924
   212      2   22.7461879205   16.6340694428   19.3950228082
   213      2   22.7461879205   16.6340694428   31.3408455240
   214      2   22.7461879205   16.6340694428   43.2866682398
   215      2   22.7461879205   16.6340694428   55.2324909556
   216      2   22.7461879205   24.9511041642    7.4492000924
   217      2   22.7461879205   24.9511041642   19.3950228082
   218      2   22.7461879205   24.9511041642   31.3408455240
   219      2   22.7461879205   24.9511041642   43.2866682398
   220      2   22.7461879205   24.9511041642   55.2324909556
   221      2   22.7461879205   33.2681388856    7.4492000924
   222      2   22.7461879205   33.2681388856   19.3950228082
   223      2   22.7461879205   33.2681388856   31.3408455240
   224      2   22.7461879205   33.2681388856   43.2866682398
   225      2   22.7461879205   33.2681388856   55.2324909556
   226      2   28.7251117181    0.0000000000    7.4492000924
   227      2   28.7251117181    0.0000000000   19.3950228082
   228      2   28.7251117181    0.0000000000   31.3408455240
   229      2   28.7251117181    0.0000000000   43.2866682398
   230      2   28.7251117181    0.0000000000   55.2324909556
   231      2   28.7251117181    8.3170347214    7.4492000924
   232      2   28.7251117181    8.3170347214   19.3950228082
   233      2   28.7251117181    8.3170347214   31.3408455240
   234      2   28.7251117181    8.3170347214   43.2866682398
   235      2   28.7251117181    8.3170347214   55.2324909556
   236      2   28.7251117181   16.6340694428    7.4492000924
   237      2   28.7251117181   16.6340694428   19.3950228082
   238      2   28.7251117181   16.6340694428   31.3408455240
   239      2   28.7251117181   16.6340694428   43.2866682398
   240      2   28.7251117181   16.6340694428   55.2324909556
   241      2   28.7251117181   24.9511041642    7.4492000924
   242      2   28.7251117181   24.9511041642   19.3950228082
   243      2   28.7251117181   24.9511041642   31.3408455240
   244      2   28.7251117181   24.9511041642   43.2866682398
   245      2   28.7251117181   24.9511041642   55.2324909556
   246      2   28.7251117181   33.2681388856    7.4492000924
   247      2   28.7251117181   33.2681388856   19.3950228082
   248      2   28.7251117181   33.2681388856   31.3408455240
   249      2   28.7251117181   33.2681388856   43.2866682398
   250      2   28.7251117181   33.2681388856   55.2324909556
   251      2    4.1589691687    0.0000000000    1.4762886390
   252      2    4.1589691687    0.0000000000   13.4221113548
   253      2    4.1589691687    0.0000000000   25.3679340706
   254      2    4.1589691687    0.0000000000   37.3137567864
   255      2    4.1589691687    0.0000000000   49.2595795022
   256      2    4.1589691687    8.3170347214    1.4762886390
   257      2    4.1589691687    8.3170347214   13.4221113548
   258      2    4.1589691687    8.3170347214   25.3679340706
   259      2    4.1589691687    8.3170347214   37.3137567864
   260      2    4.1589691687    8.3170347214   49.2595795022
   261      2    4.1589691687   16.6340694428    1.4762886390
   262      2    4.1589691687   16.6340694428   13.4221113548
   263      2    4.1589691687   16.6340694428   25.3679340706
   264      2    4.1589691687   16.6340694428   37.3137567864
   265      2    4.1589691687   16.6340694428   49.2595795022
   266      2    4.1589691687   24.9511041642    1.4762886390
   267      2    4.1589691687   24.9511041642   13.4221113548
   268      2    4.1589691687   24.9511041642   25.3679340706
   269      2    4.1589691687   24.9511041642   37.3137567864
   270      2    4.1589691687   24.9511041642   49.2595795022
   271      2    4.1589691687   33.2681388856    1.4762886390
   272      2    4.1589691687   33.2681388856   13.4221113548
   273      2    4.1589691687   33.2681388856   25.3679340706
   274      2    4.1589691687   33.2681388856   37.3137567864
   275      2    4.1589691687   33.2681388856   49.2595795022
   276      2   10.1378929663    0.0000000000    1.4762886390
   277      2   10.1378929663    0.0000000000   13.4221113548
   278      2   10.1378929663    0.0000000000   25.3679340706
   279      2   10.1378929663    0.0000000000   37.3137567864
   280      2   10.1378929663    0.0000000000   49.2595795022
   281      2   10.1378929663    8.3170347214    1.4762886390
   282      2   10.1378929663    8.3170347214   13.4221113548
   283      2   10.1378929663    8.3170347214   25.3679340706
   284      2   10.1378929663    8.3170347214   37.3137567864
   285      2   10.1378929663    8.3170347214   49.2595795022
   286      2   10.1378929663   16.6340694428    1.4762886390
   287      2   10.1378929663   16.6340694428   13.4221113548
   288      2   10.1378929663   16.6340694428   25.3679340706
   289      2   10.1378929663   16.6340694428   37.3137567864
   290      2   10.1378929663   16.6340694428   49.2595795022
   291      2   10.1378929663   24.9511041642    1.4762886390
   292      2   10.1378929663   24.9511041642   13.4221113548
   293      2   10.1378929663   24.9511041642   25.3679340706
   294      2   10.1378929663   24.9511041642   37.3137567864
   295      2   10.1378929663   24.9511041642   49.2595795022
   296      2   10.1378929663   33.2681388856    1.4762886390
   297      2   10.1378929663   33.2681388856   13.4221113548
   298      2   10.1378929663   33.2681388856   25.3679340706
   299      2   10.1378929663   33.2681388856   37.3137567864
   300      2   10.1378929663   33.2681388856   49.2595795022
   301      2   16.1168167639    0.0000000000    1.4762886390
   302      2   16.1168167639    0.0000000000   13.4221113548
   303      2   16.1168167639    0.0000000000   25.3679340706
   304      2   16.1168167639    0.0000000000   37.3137567864
   305      2   16.1168167639    0.0000000000   49.2595795022
   306      2   16.1168167639    8.3170347214    1.4762886390
   307      2   16.1168167639    8.3170347214   13.4221113548
   308      2   16.1168167639    8.3170347214   25.3679340706
   309      2   16.1168167639    8.3170347214   37.3137567864
   310      2   16.1168167639    8.3170347214   49.2595795022
   311      2   16.1168167639   16.6340694428    1.4762886390
   312      2   16.1168167639   16.6340694428   13.4221113548
   313      2   16.1168167639   16.6340694428   25.3679340706
   314      2   16.1168167639   16.6340694428   37.3137567864
   315      2   16.1168167639   16.6340694428   49.2595795022
   316      2   16.1168167639   24.9511041642    1.4762886390
   317      2   16.1168167639   24.9511041642   13.4221113548
   318      2   16.1168167639   24.9511041642   25.3679340706
   319      2   16.1168167639   24.9511041642   37.3137567864
   320      2   16.1168167639   24.9511041642   49.2595795022
   321      2   16.1168167639   33.2681388856    1.4762886390
   322      2   16.1168167639   33.2681388856   13.4221113548
   323      2   16.1168167639   33.2681388856   25.3679340706
   324      2   16.1168167639   33.2681388856   37.3137567864
   325      2   16.1168167639   33.2681388856   49.2595795022
   326      2   22.0957405615    0.0000000000    1.4762886390
   327      2   22.0957405615    0.0000000000   13.4221113548
   328      2   22.0957405615    0.0000000000   25.3679340706
   329      2   22.0957405615    0.0000000000   37.3137567864
   330      2   22.0957405615    0.0000000000   49.2595795022
   331      2   22.0957405615    8.3170347214    1.4762886390
   332      2   22.0957405615    8.3170347214   13.4221113548
   333      2   22.0957405615    8.3170347214   25.3679340706
   334      2   22.0957405615    8.3170347214   37.3137567864
   335      2   22.0957405615    8.3170347214   49.2595795022
   336      2   22.0957405615   16.6340694428    1.4762886390
   337      2   22.0957405615   16.6340694428   13.4221113548
   338      2   22.0957405615   16.6340694428   25.3679340706
   339      2   22.0957405615   16.6340694428   37.3137567864
   340      2   22.0957405615   16.6340694428   49.2595795022
   341      2   22.0957405615   24.9511041642    1.4762886390
   342      2   22.0957405615   24.9511041642   13.4221113548
   343      2   22.0957405615   24.9511041642   25.3679340706
   344      2   22.0957405615   24.9511041642   37.3137567864
   345      2   22.0957405615   24.9511041642   49.2595795022
   346      2   22.0957405615   33.2681388856    1.4762886390
   347      2   22.0957405615   33.2681388856   13.4221113548
   348      2   22.0957405615   33.2681388856   25.3679340706
   349      2   22.0957405615   33.2681388856   37.3137567864
   350      2   22.0957405615   33.2681388856   49.2595795022
   351      2   28.0746643591    0.0000000000    1.4762886390
   352      2   28.0746643591    0.0000000000   13.4221113548
   353      2   28.0746643591    0.0000000000   25.3679340706
   354      2   28.0746643591    0.0000000000   37.3137567864
   355      2   28.0746643591    0.0000000000   49.2595795022
   356      2   28.0746643591    8.3170347214    1.4762886390
   357      2   28.0746643591    8.3170347214   13.4221113548
   358      2   28.0746643591    8.3170347214   25.3679340706
   359      2   28.0746643591    8.3170347214   37.3137567864
   360      2   28.0746643591    8.3170347214   49.2595795022
   361      2   28.0746643591   16.6340694428    1.4762886390
   362      2   28.0746643591   16.6340694428   13.4221113548
   363      2   28.0746643591   16.6340694428   25.3679340706
   364      2   28.0746643591   16.6340694428   37.3137567864
   365      2   28.0746643591   16.6340694428   49.2595795022
   366      2   28.0746643591   24.9511041642    1.4762886390
   367      2   28.0746643591   24.9511041642   13.4221113548
   368      2   28.0746643591   24.9511041642   25.3679340706
   369      2   28.0746643591   24.9511041642   37.3137567864
   370      2   28.0746643591   24.9511041642   49.2595795022
   371      2   28.0746643591   33.2681388856    1.4762886390
   372      2   28.0746643591   33.2681388856   13.4221113548
   373      2   28.0746643591   33.2681388856   25.3679340706
   374      2   28.0746643591   33.2681388856   37.3137567864
   375      2   28.0746643591   33.2681388856   49.2595795022
   376      2    1.1695073595    0.0000000000    4.4966226234
   377      2    1.1695073595    0.0000000000   16.4424453392
   378      2    1.1695073595    0.0000000000   28.3882680550
   379      2    1.1695073595    0.0000000000   40.3340907708
   380      2    1.1695073595    0.0000000000   52.2799134866
   381      2    1.1695073595    8.3170347214    4.4966226234
   382      2    1.1695073595    8.3170347214   16.4424453392
   383      2    1.1695073595    8.3170347214   28.3882680550
   384      2    1.1695073595    8.3170347214   40.3340907708
   385      2    1.1695073595    8.3170347214   52.2799134866
   386      2    1.1695073595   16.6340694428    4.4966226234
   387      2    1.1695073595   16.6340694428   16.4424453392
   388      2    1.1695073595   16.6340694428   28.3882680550
   389      2    1.1695073595   16.6340694428   40.3340907708
   390      2    1.1695073595   16.6340694428   52.2799134866
   391      2    1.1695073595   24.9511041642    4.4966226234
   392      2    1.1695073595   24.9511041642   16.4424453392
   393      2    1.1695073595   24.9511041642   28.3882680550
   394      2    1.1695073595   24.9511041642   40.3340907708
   395      2    1.1695073595   24.9511041642   52.2799134866
   396      2    1.1695073595   33.2681388856    4.4966226234
   397      2    1.1695073595   33.2681388856   16.4424453392
   398      2    1.1695073595   33.2681388856   28.3882680550
   399      2    1.1695073595   33.2681388856   40.3340907708
   400      2    1.1695073595   33.2681388856   52.2799134866
   401      2    7.1484311571    0.0000000000    4.4966226234
   402      2    7.1484311571    0.0000000000   16.4424453392
   403      2    7.1484311571    0.0000000000   28.3882680550
   404      2    7.1484311571    0.0000000000   40.3340907708
   405      2    7.1484311571    0.0000000000   52.2799134866
   406      2    7.1484311571    8.3170347214    4.4966226234
   407      2    7.1484311571    8.3170347214   16.4424453392
   408      2    7.1484311571    8.3170347214   28.3882680550
   409      2    7.1484311571    8.3170347214   40.3340907708
   410      2    7.1484311571    8.3170347214   52.2799134866
   411      2    7.1484311571   16.6340694428    4.4966226234
   412      2    7.1484311571   16.6340694428   16.4424453392
   413      2    7.1484311571   16.6340694428   28.3882680550
   414      2    7.1484311571   16.6340694428   40.3340907708
   415      2    7.1484311571   16.6340694428   52.2799134866
   416      2    7.1484311571   24.9511041642    4.4966226234
   417      2    7.1484311571   24.9511041642   16.4424453392
   418      2    7.1484311571   24.9511041642   28.3882680550
   419      2    7.1484311571   24.9511041642   40.3340907708
   420      2    7.1484311571   24.9511041642   52.2799134866
   421      2    7.1484311571   33.2681388856    4.4966226234
   422      2    7.1484311571   33.2681388856   16.4424453392
   423      2    7.1484311571   33.2681388856   28.3882680550
   424      2    7.1484311571   33.2681388856   40.3340907708
   425      2    7.1484311571   33.2681388856   52.2799134866
   426      2   13.1273549547    0.0000000000    4.4966226234
   427      2   13.1273549547    0.0000000000   16.4424453392
   428      2   13.1273549547    0.0000000000   28.3882680550
   429      2   13.1273549547    0.0000000000   40.3340907708
   430      2   13.1273549547    0.0000000000   52.2799134866
   431      2   13.1273549547    8.3170347214    4.4966226234
   432      2   13.1273549547    8.3170347214   16.4424453392
   433      2   13.1273549547    8.3170347214   28.3882680550
   434      2   13.1273549547    8.3170347214   40.3340907708
   435      2   13.1273549547    8.3170347214   52.2799134866
   436      2   13.1273549547   16.6340694428    4.4966226234
   437      2   13.1273549547   16.6340694428   16.4424453392
   438      2   13.1273549547   16.6340694428   28.3882680550
   439      2   13.1273549547   16.6340694428   40.3340907708
   440      2   13.1273549547   16.6340694428   52.2799134866
   441      2   13.1273549547   24.9511041642    4.4966226234
   442      2   13.1273549547   24.9511041642   16.4424453392
   443      2   13.1273549547   24.9511041642   28.3882680550
   444      2   13.1273549547   24.9511041642   40.3340907708
   445      2   13.1273549547   24.9511041642   52.2799134866
   446      2   13.1273549547   33.2681388856    4.4966226234
   447      2   13.1273549547   33.2681388856   16.4424453392
   448      2   13.1273549547   33.2681388856   28.3882680550
   449      2   13.1273549547   33.2681388856   40.3340907708
   450      2   13.1273549547   33.2681388856   52.2799134866
   451      2   19.1062787523    0.0000000000    4.4966226234
   452      2   19.1062787523    0.0000000000   16.4424453392
   453      2   19.1062787523    0.0000000000   28.3882680550
   454      2   19.1062787523    0.0000000000   40.3340907708
   455      2   19.1062787523    0.0000000000   52.2799134866
   456      2   19.1062787523    8.3170347214    4.4966226234
   457      2   19.1062787523    8.3170347214   16.4424453392
   458      2   19.1062787523    8.3170347214   28.3882680550
   459      2   19.1062787523    8.3170347214   40.3340907708
   460      2   19.1062787523    8.3170347214   52.2799134866
   461      2   19.1062787523   16.6340694428    4.4966226234
   462      2   19.1062787523   16.6340694428   16.4424453392
   463      2   19.1062787523   16.6340694428   28.3882680550
   464      2   19.1062787523   16.6340694428   40.3340907708
   465      2   19.1062787523   16.6340694428   52.2799134866
   466      2   19.1062787523   24.9511041642    4.4966226234
   467      2   19.1062787523   24.9511041642   16.4424453392
   468      2   19.1062787523   24.9511041642   28.3882680550
   469      2   19.1062787523   24.9511041642   40.3340907708
   470      2   19.1062787523   24.9511041642   52.2799134866
   471      2   19.1062787523   33.2681388856    4.4966226234
   472      2   19.1062787523   33.2681388856   16.4424453392
   473      2   19.1062787523   33.2681388856   28.3882680550
   474      2   19.1062787523   33.2681388856   40.3340907708
   475      2   19.1062787523   33.2681388856   52.2799134866
   476      2   25.0852025499    0.0000000000    4.4966226234
   477      2   25.0852025499    0.0000000000   16.4424453392
   478      2   25.0852025499    0.0000000000   28.3882680550
   479      2   25.0852025499    0.0000000000   40.3340907708
   480      2   25.0852025499    0.0000000000   52.2799134866